# CODEOWNERS file for /docs/ folder.
# Forces a review from other writers for anything within /docs/.
/docs/ @bdenham
